3
Water molecule (H2O) - PBE/DZVP reference energy: ~-17.22 Ha
O     0.000000    0.000000    0.117369
H    -0.756950    0.000000   -0.469476
H     0.756950    0.000000   -0.469476
